[Molden Format]
[Title]
 Molden file created by orca_2mkl for BaseName=dft

[Atoms] AU
H    1   1         -2.5905310707         4.7526990213         4.4011721659 
C    2   6         -3.4787401482         4.8804445080         2.5632056308 
C    3   6         -6.1112042417         5.0368760374         2.3752156750 
H    4   1         -7.2595530188         5.0301675096         4.0677488868 
C    5   6         -7.2593262517         5.2020192042        -0.0005291233 
H    6   1         -9.2958841062         5.3230372658        -0.1459624466 
C    7   6         -5.7750030653         5.2106930472        -2.1883217603 
H    8   1         -6.6632310400         5.3384574311        -4.0262693982 
C    9   6         -3.1425200744         5.0542615178        -2.0003318045 
H   10   1         -1.9941901946         5.0609700456        -3.6928650164 
C   11   6         -1.9943980645         4.8891183509         0.3754318910 
H   12   1          0.0421597900         4.7680813921         0.5208652143 
[GTO]
  1 0
s   3 1.0 
       34.0613410000         0.2556299169
        5.1235746000         0.4613599649
        1.1646626000         0.6811214941
s   1 1.0 
        0.3272304100         0.3083545312
s   1 1.0 
        0.1030724100         0.1296483265
p   1 1.0 
        0.8000000000         1.0784563492

  2 0
s   6 1.0 
    13575.3496820000         0.5435905310
     2035.2333680000         1.0145543947
      463.2256235900         1.7315731970
      131.2001959800         2.6910376290
       42.8530158910         3.6044547126
       15.5841857660         3.7025556986
s   2 1.0 
        6.2067138508         1.8383540830
        2.5764896527         0.5447575605
s   1 1.0 
        0.5769633942         0.4718145038
s   1 1.0 
        0.2297283136         0.2364944676
s   1 1.0 
        0.0951644400         0.1221141848
p   4 1.0 
       34.6972322440         1.3596651507
        7.9582622826         1.4512589486
        2.3780826883         1.2709231419
        0.8143320818         0.8025721189
p   1 1.0 
        0.2888754725         0.3018758868
p   1 1.0 
        0.1005682367         0.0807265016
d   1 1.0 
        1.0970000000         3.3522135855
d   1 1.0 
        0.3180000000         0.3838994974
f   1 1.0 
        0.7610000000         3.0840084332

  3 0
s   6 1.0 
    13575.3496820000         0.5435905310
     2035.2333680000         1.0145543947
      463.2256235900         1.7315731970
      131.2001959800         2.6910376290
       42.8530158910         3.6044547126
       15.5841857660         3.7025556986
s   2 1.0 
        6.2067138508         1.8383540830
        2.5764896527         0.5447575605
s   1 1.0 
        0.5769633942         0.4718145038
s   1 1.0 
        0.2297283136         0.2364944676
s   1 1.0 
        0.0951644400         0.1221141848
p   4 1.0 
       34.6972322440         1.3596651507
        7.9582622826         1.4512589486
        2.3780826883         1.2709231419
        0.8143320818         0.8025721189
p   1 1.0 
        0.2888754725         0.3018758868
p   1 1.0 
        0.1005682367         0.0807265016
d   1 1.0 
        1.0970000000         3.3522135855
d   1 1.0 
        0.3180000000         0.3838994974
f   1 1.0 
        0.7610000000         3.0840084332

  4 0
s   3 1.0 
       34.0613410000         0.2556299169
        5.1235746000         0.4613599649
        1.1646626000         0.6811214941
s   1 1.0 
        0.3272304100         0.3083545312
s   1 1.0 
        0.1030724100         0.1296483265
p   1 1.0 
        0.8000000000         1.0784563492

  5 0
s   6 1.0 
    13575.3496820000         0.5435905310
     2035.2333680000         1.0145543947
      463.2256235900         1.7315731970
      131.2001959800         2.6910376290
       42.8530158910         3.6044547126
       15.5841857660         3.7025556986
s   2 1.0 
        6.2067138508         1.8383540830
        2.5764896527         0.5447575605
s   1 1.0 
        0.5769633942         0.4718145038
s   1 1.0 
        0.2297283136         0.2364944676
s   1 1.0 
        0.0951644400         0.1221141848
p   4 1.0 
       34.6972322440         1.3596651507
        7.9582622826         1.4512589486
        2.3780826883         1.2709231419
        0.8143320818         0.8025721189
p   1 1.0 
        0.2888754725         0.3018758868
p   1 1.0 
        0.1005682367         0.0807265016
d   1 1.0 
        1.0970000000         3.3522135855
d   1 1.0 
        0.3180000000         0.3838994974
f   1 1.0 
        0.7610000000         3.0840084332

  6 0
s   3 1.0 
       34.0613410000         0.2556299169
        5.1235746000         0.4613599649
        1.1646626000         0.6811214941
s   1 1.0 
        0.3272304100         0.3083545312
s   1 1.0 
        0.1030724100         0.1296483265
p   1 1.0 
        0.8000000000         1.0784563492

  7 0
s   6 1.0 
    13575.3496820000         0.5435905310
     2035.2333680000         1.0145543947
      463.2256235900         1.7315731970
      131.2001959800         2.6910376290
       42.8530158910         3.6044547126
       15.5841857660         3.7025556986
s   2 1.0 
        6.2067138508         1.8383540830
        2.5764896527         0.5447575605
s   1 1.0 
        0.5769633942         0.4718145038
s   1 1.0 
        0.2297283136         0.2364944676
s   1 1.0 
        0.0951644400         0.1221141848
p   4 1.0 
       34.6972322440         1.3596651507
        7.9582622826         1.4512589486
        2.3780826883         1.2709231419
        0.8143320818         0.8025721189
p   1 1.0 
        0.2888754725         0.3018758868
p   1 1.0 
        0.1005682367         0.0807265016
d   1 1.0 
        1.0970000000         3.3522135855
d   1 1.0 
        0.3180000000         0.3838994974
f   1 1.0 
        0.7610000000         3.0840084332

  8 0
s   3 1.0 
       34.0613410000         0.2556299169
        5.1235746000         0.4613599649
        1.1646626000         0.6811214941
s   1 1.0 
        0.3272304100         0.3083545312
s   1 1.0 
        0.1030724100         0.1296483265
p   1 1.0 
        0.8000000000         1.0784563492

  9 0
s   6 1.0 
    13575.3496820000         0.5435905310
     2035.2333680000         1.0145543947
      463.2256235900         1.7315731970
      131.2001959800         2.6910376290
       42.8530158910         3.6044547126
       15.5841857660         3.7025556986
s   2 1.0 
        6.2067138508         1.8383540830
        2.5764896527         0.5447575605
s   1 1.0 
        0.5769633942         0.4718145038
s   1 1.0 
        0.2297283136         0.2364944676
s   1 1.0 
        0.0951644400         0.1221141848
p   4 1.0 
       34.6972322440         1.3596651507
        7.9582622826         1.4512589486
        2.3780826883         1.2709231419
        0.8143320818         0.8025721189
p   1 1.0 
        0.2888754725         0.3018758868
p   1 1.0 
        0.1005682367         0.0807265016
d   1 1.0 
        1.0970000000         3.3522135855
d   1 1.0 
        0.3180000000         0.3838994974
f   1 1.0 
        0.7610000000         3.0840084332

 10 0
s   3 1.0 
       34.0613410000         0.2556299169
        5.1235746000         0.4613599649
        1.1646626000         0.6811214941
s   1 1.0 
        0.3272304100         0.3083545312
s   1 1.0 
        0.1030724100         0.1296483265
p   1 1.0 
        0.8000000000         1.0784563492

 11 0
s   6 1.0 
    13575.3496820000         0.5435905310
     2035.2333680000         1.0145543947
      463.2256235900         1.7315731970
      131.2001959800         2.6910376290
       42.8530158910         3.6044547126
       15.5841857660         3.7025556986
s   2 1.0 
        6.2067138508         1.8383540830
        2.5764896527         0.5447575605
s   1 1.0 
        0.5769633942         0.4718145038
s   1 1.0 
        0.2297283136         0.2364944676
s   1 1.0 
        0.0951644400         0.1221141848
p   4 1.0 
       34.6972322440         1.3596651507
        7.9582622826         1.4512589486
        2.3780826883         1.2709231419
        0.8143320818         0.8025721189
p   1 1.0 
        0.2888754725         0.3018758868
p   1 1.0 
        0.1005682367         0.0807265016
d   1 1.0 
        1.0970000000         3.3522135855
d   1 1.0 
        0.3180000000         0.3838994974
f   1 1.0 
        0.7610000000         3.0840084332

 12 0
s   3 1.0 
       34.0613410000         0.2556299169
        5.1235746000         0.4613599649
        1.1646626000         0.6811214941
s   1 1.0 
        0.3272304100         0.3083545312
s   1 1.0 
        0.1030724100         0.1296483265
p   1 1.0 
        0.8000000000         1.0784563492

[5D]
[7F]
[9G]
[MO]
 Sym=     1a 
 Ene=-0.15
 Spin= Alpha 
 Occup= 1.000000 
 1 	 -1.0452125058501076e-06
 2 	 2.2481121616319726e-06
 3 	 -6.313359291110834e-06
 4 	 0.0005961098798310044
 5 	 0.01058063482349564
 6 	 0.0004461763830527621
 7 	 -2.1589061307004725e-07
 8 	 -7.431342860996346e-07
 9 	 8.830502514959886e-06
 10 	 -4.623273913819287e-05
 11 	 8.823136270450534e-06
 12 	 0.012765183590093723
 13 	 0.22632418163421705
 14 	 0.009558751000663534
 15 	 0.01106440337834134
 16 	 0.19594735608340025
 17 	 0.008280014554754953
 18 	 0.007101998411611219
 19 	 0.12546583856974908
 20 	 0.005294211223111258
 21 	 -0.00038218118492585614
 22 	 -0.0001770411240956493
 23 	 -0.0052201084712931636
 24 	 9.2328610546373e-05
 25 	 0.0027839102392955336
 26 	 -0.00023075772865825792
 27 	 0.0002476851082305803
 28 	 -0.0031925469473629287
 29 	 0.0010037958662554396
 30 	 0.010084899905467043
 31 	 0.000333944260551901
 32 	 4.419810759212711e-05
 33 	 0.0032231910038452386
 34 	 0.00013204209757537806
 35 	 -0.002074809224184765
 36 	 -0.000379442846597102
 37 	 -0.002851884682636193
 38 	 -2.7733334193156276e-08
 39 	 -4.425147010468232e-07
 40 	 3.748286512287416e-06
 41 	 -1.1368505938900699e-05
 42 	 8.909273607883324e-05
 43 	 0.0012143539683298508
 44 	 0.02150530711609242
 45 	 0.0009082568902804668
 46 	 0.0010633880672340863
 47 	 0.018617115447822685
 48 	 0.000787950087013867
 49 	 0.0007136923355435976
 50 	 0.011921807607258583
 51 	 0.00045169869517181697
 52 	 0.0004403601446987258
 53 	 0.0007388751628267221
 54 	 0.005984604715799322
 55 	 0.0013216571114638166
 56 	 0.009420613059516428
 57 	 0.0010174214066692223
 58 	 0.0016482379677321198
 59 	 0.013862312017479058
 60 	 0.002883711222088508
 61 	 0.020184825768373334
 62 	 -0.00031638639406788004
 63 	 -0.0002758553140619355
 64 	 -0.003034105275181156
 65 	 -0.00022973030938950193
 66 	 -0.0015424066508565328
 67 	 -0.0004070186290305476
 68 	 -0.002859426262159207
 69 	 -9.618191122990899e-08
 70 	 6.838358399045058e-06
 71 	 2.843788100339947e-05
 72 	 5.73106939049196e-05
 73 	 0.0010052643731556705
 74 	 4.1743752169850286e-05
 75 	 4.601916219624894e-07
 76 	 7.659135579602289e-07
 77 	 2.298244689171312e-06
 78 	 -1.3158292504833597e-05
 79 	 -5.792093250424467e-05
 80 	 -0.011554176934104233
 81 	 -0.20482026329406305
 82 	 -0.008652466830107676
 83 	 -0.010008078181247456
 84 	 -0.17732877769688907
 85 	 -0.007501202714067807
 86 	 -0.006406073419239011
 87 	 -0.11354333859671797
 88 	 -0.004792752188611763
 89 	 0.00045353788094752083
 90 	 0.00019787147587717826
 91 	 0.006210867361878028
 92 	 -0.00014553026346946266
 93 	 -0.003622658481924587
 94 	 0.0010485258217054298
 95 	 0.0008148663286675653
 96 	 0.014206717112148768
 97 	 0.0006388054325343948
 98 	 0.0003375137680301341
 99 	 -0.0002955880653435095
 100 	 1.8439137844460094e-05
 101 	 -0.0028499017894754453
 102 	 -2.5007249462242272e-05
 103 	 0.00269746030731057
 104 	 0.0003101266953195825
 105 	 0.00264202734901007
 106 	 9.051986487547699e-07
 107 	 8.995068461852453e-06
 108 	 1.0829700205592237e-05
 109 	 -0.0005393506221466781
 110 	 -0.009574803036007738
 111 	 -0.00040454705462940777
 112 	 -4.946881271100477e-07
 113 	 -1.3396448011902464e-06
 114 	 9.722609187410351e-06
 115 	 -4.4422842197352496e-05
 116 	 -6.335866860129085e-05
 117 	 -0.012765964007555648
 118 	 -0.22632390522727208
 119 	 -0.009559905720117912
 120 	 -0.011064977431656865
 121 	 -0.1959472468618811
 122 	 -0.00828149038005798
 123 	 -0.0071175082209962975
 124 	 -0.12546322530758297
 125 	 -0.005325840022375611
 126 	 -0.00038212615429813817
 127 	 -0.00017705217063829285
 128 	 -0.0052201800164422526
 129 	 9.232410874785614e-05
 130 	 0.0027839191367251713
 131 	 -0.00023011038050675328
 132 	 0.0002486829835147329
 133 	 -0.0031929021489199355
 134 	 0.0010032773884790693
 135 	 0.010084851488954041
 136 	 -0.0003339709422134539
 137 	 -4.425068182163711e-05
 138 	 -0.0032232366880520606
 139 	 -0.0001321225989327756
 140 	 0.0020747502587353944
 141 	 0.0003794665008933638
 142 	 0.0028518605262343
 143 	 -8.762452695893687e-07
 144 	 7.394932750250516e-07
 145 	 -1.543871367074141e-05
 146 	 -0.0005961905359618478
 147 	 -0.01058065506832732
 148 	 -0.0004463941443080442
 149 	 1.999463972048216e-07
 150 	 4.866058081486217e-08
 151 	 2.977586170548314e-06
 152 	 -1.2624412598524448e-05
 153 	 0.00016226984579605975
 154 	 -0.0012141585779394865
 155 	 -0.02150717676394836
 156 	 -0.0009087403213347727
 157 	 -0.0010634685542114403
 158 	 -0.01861889805667815
 159 	 -0.0007879478213552497
 160 	 -0.0007323636609373287
 161 	 -0.01192296175160899
 162 	 -0.0004242272183865751
 163 	 0.0004403235862266033
 164 	 0.0007388907849165135
 165 	 0.005984413622248558
 166 	 0.0013216006161081402
 167 	 0.009420357893315525
 168 	 0.0010170882093446622
 169 	 0.0016493491041273576
 170 	 0.01386193694019008
 171 	 0.002883968180538704
 172 	 0.02018435635261428
 173 	 0.00031638650186782875
 174 	 0.00027580858775676904
 175 	 0.0030340384186745535
 176 	 0.0002297388608761157
 177 	 0.0015423703483684835
 178 	 0.00040702142587042283
 179 	 0.002859436197016523
 180 	 -2.0589114162229177e-07
 181 	 8.334268807816301e-06
 182 	 3.68764305616727e-05
 183 	 -5.739742272115481e-05
 184 	 -0.0010053921758789565
 185 	 -4.16350159382718e-05
 186 	 1.8814082747313114e-07
 187 	 1.8359138697366206e-07
 188 	 3.180907022383325e-06
 189 	 -1.1516857874304176e-05
 190 	 -0.000130241701223226
 191 	 0.01155526115271203
 192 	 0.20481765341069824
 193 	 0.008652679481263281
 194 	 0.01000946531716667
 195 	 0.17732645135479108
 196 	 0.007501154478479487
 197 	 0.006440895250157185
 198 	 0.11353921383349087
 199 	 0.004795415524249188
 200 	 0.0004535292001357884
 201 	 0.0001978290557740308
 202 	 0.006210989810122653
 203 	 -0.0001454907844967937
 204 	 -0.0036227160414983492
 205 	 0.0010473393142229964
 206 	 0.0008150020037848358
 207 	 0.014206801245536402
 208 	 0.0006393501890493341
 209 	 0.000337278534810287
 210 	 0.0002955492853347916
 211 	 -1.8450132207050464e-05
 212 	 0.0028498033354861295
 213 	 2.5028675955890482e-05
 214 	 -0.0026975102621028344
 215 	 -0.00031020111097350135
 216 	 -0.0026420218089624383
 217 	 1.072114762713594e-06
 218 	 7.483996318613249e-06
 219 	 1.8131087913506618e-06
 220 	 0.0005395671142874556
 221 	 0.009574646790665779
 222 	 0.0004045288913499182
 Sym=     1a 
 Ene=-0.13999999999999999
 Spin= Alpha 
 Occup= 1.000000 
 1 	 1.797392347667552e-07
 2 	 -6.332509113792367e-06
 3 	 -3.2163875274434052e-06
 4 	 -0.0002783009141150596
 5 	 -0.004947959940696337
 6 	 -0.00020784989676188886
 7 	 2.0002859354662049e-07
 8 	 5.341424581964876e-07
 9 	 -3.283241021087562e-06
 10 	 1.3845236412185725e-05
 11 	 -5.6408540347278206e-05
 12 	 -0.005969835681985363
 13 	 -0.1058308600606999
 14 	 -0.004470409450953564
 15 	 -0.005181526445058956
 16 	 -0.0916303070167588
 17 	 -0.0038580098887601175
 18 	 -0.003322190579935529
 19 	 -0.05866336135040761
 20 	 -0.002440386095399192
 21 	 -0.00021917613216055568
 22 	 0.0002492770390543115
 23 	 -0.0030145340522830734
 24 	 0.0009900513610776715
 25 	 0.009870853243797974
 26 	 -0.0007675308106396106
 27 	 0.000251381540232534
 28 	 -0.010478669765142124
 29 	 0.001798878579850751
 30 	 0.019807487111706178
 31 	 0.00016086025193949127
 32 	 -5.165962430580887e-05
 33 	 0.0015584584197915951
 34 	 -0.00032328073417653197
 35 	 -0.002068674001454993
 36 	 0.0007342974618780706
 37 	 0.0036598579216747733
 38 	 -3.2036617393153517e-07
 39 	 -6.836743820909485e-07
 40 	 -1.6266737032085565e-06
 41 	 1.7816956240096827e-05
 42 	 3.384636275844878e-05
 43 	 -0.014041850253614378
 44 	 -0.24892034830812157
 45 	 -0.010515076558677526
 46 	 -0.012168992627741335
 47 	 -0.21551268831736115
 48 	 -0.009120854034494799
 49 	 -0.007813853165461867
 50 	 -0.1379893492601115
 51 	 -0.005854393407706056
 52 	 0.0002718844099534461
 53 	 0.0001531453727795987
 54 	 0.0037163409214958547
 55 	 4.864854700407437e-06
 56 	 -0.0013576654245970382
 57 	 -4.714924260095296e-06
 58 	 0.00010078438826472841
 59 	 -0.00023825659105290023
 60 	 0.00029359320743289533
 61 	 0.002718479123886107
 62 	 -0.00028836796568730707
 63 	 -0.00024200122041097811
 64 	 -0.0027610590991569615
 65 	 -0.0005223404928238791
 66 	 -0.001230384338542719
 67 	 0.000699051183231285
 68 	 0.0036995866113383735
 69 	 -6.87285543072282e-07
 70 	 -6.660307746766951e-06
 71 	 -1.1645709509962828e-06
 72 	 -0.0006574260244571958
 73 	 -0.011636477142181533
 74 	 -0.0004913146531013303
 75 	 2.033570265728067e-07
 76 	 5.859291393826584e-07
 77 	 -3.3757963815351783e-07
 78 	 -1.1888660737622376e-05
 79 	 1.3695183959783789e-05
 80 	 -0.008071382567629138
 81 	 -0.14308086287554303
 82 	 -0.006044107087403496
 83 	 -0.006994159193116113
 84 	 -0.12388080058989537
 85 	 -0.005254936417373854
 86 	 -0.004444745732896888
 87 	 -0.07930989836597772
 88 	 -0.0033891431466985967
 89 	 -0.000686025685211033
 90 	 -0.0005928683887554257
 91 	 -0.009352562122883672
 92 	 -0.0005671888458653742
 93 	 -0.0014905775241842321
 94 	 -0.0014756663192886633
 95 	 -0.0010437133219161595
 96 	 -0.02012617736531824
 97 	 -0.0005739135747895091
 98 	 0.0025144708816227782
 99 	 -0.0002694980224674594
 100 	 -0.0003819196981446208
 101 	 -0.0025802644809589047
 102 	 -0.000641408901498386
 103 	 -0.0034768954791836496
 104 	 0.0004121763435997689
 105 	 0.0013295389521685156
 106 	 7.203473843596952e-08
 107 	 3.098531101864285e-06
 108 	 1.295060748338642e-05
 109 	 -0.000377319532000833
 110 	 -0.00668896568579318
 111 	 -0.00028307278274090214
 112 	 2.1071648193094243e-07
 113 	 5.54957271751569e-07
 114 	 -3.283516261640993e-06
 115 	 1.3547257325898365e-05
 116 	 -6.465629960926722e-05
 117 	 0.0059704906321630825
 118 	 0.105836514812818
 119 	 0.004471513075180222
 120 	 0.005182183249080794
 121 	 0.09163546808795547
 122 	 0.0038587657082319996
 123 	 0.003321237794157382
 124 	 0.058667228034882314
 125 	 0.0024384175582898783
 126 	 -0.00021913056783434578
 127 	 0.0002492574624921101
 128 	 -0.003014358765569654
 129 	 0.0009900133777326356
 130 	 0.00987060262850968
 131 	 -0.0007674500159766401
 132 	 0.0002514125282312657
 133 	 -0.010478275205581918
 134 	 0.001798772081187495
 135 	 0.019807112391968616
 136 	 -0.0001608151801273381
 137 	 5.165434876484802e-05
 138 	 -0.001558357930004034
 139 	 0.00032329014273312437
 140 	 0.00206863628490704
 141 	 -0.0007343218257322271
 142 	 -0.0036599582310649593
 143 	 1.5990358840956175e-07
 144 	 -6.469391009841088e-06
 145 	 -3.719680751381524e-06
 146 	 0.00027836556550623877
 147 	 0.00494822493812873
 148 	 0.00020786962962328774
 149 	 -3.114165920673008e-07
 150 	 -6.640379968305729e-07
 151 	 -1.6663043214756492e-06
 152 	 1.7818338764135868e-05
 153 	 4.150858617399728e-05
 154 	 0.014041824907969815
 155 	 0.24892342791627078
 156 	 0.010514895402893742
 157 	 0.012169164700710475
 158 	 0.2155157475418243
 159 	 0.009120911141550574
 160 	 0.00781162095473022
 161 	 0.13799069447193157
 162 	 0.005856930977564833
 163 	 0.0002718439524591951
 164 	 0.00015313026376505265
 165 	 0.0037164028572586783
 166 	 4.88541452268348e-06
 167 	 -0.0013577127067353955
 168 	 -4.76030825052199e-06
 169 	 0.00010085329975334071
 170 	 -0.00023791941024038733
 171 	 0.00029363828983138836
 172 	 0.0027181023261502154
 173 	 0.0002883457770442622
 174 	 0.00024201032771719273
 175 	 0.0027611660037183275
 176 	 0.0005223691833108337
 177 	 0.0012303451046832806
 178 	 -0.000699055442376588
 179 	 -0.0036996449252777288
 180 	 -6.932605653911587e-07
 181 	 -6.526193334972939e-06
 182 	 -3.0263031579704306e-07
 183 	 0.0006574386577947769
 184 	 0.011636677511489607
 185 	 0.0004913304452374464
 186 	 1.5865303490865055e-07
 187 	 4.926343373061676e-07
 188 	 -2.1542758348096885e-07
 189 	 -1.1463361808749114e-05
 190 	 6.853323904986143e-06
 191 	 0.008072906272852622
 192 	 0.14308654034252036
 193 	 0.006044432120667455
 194 	 0.006995462712092402
 195 	 0.12388605351363549
 196 	 0.005255276970228474
 197 	 0.004449856729601766
 198 	 0.07931337714052994
 199 	 0.00338958367541045
 200 	 -0.0006859991076764469
 201 	 -0.0005928325620068297
 202 	 -0.009352310623315797
 203 	 -0.0005671874881312321
 204 	 -0.0014906435875178552
 205 	 -0.0014757795512187445
 206 	 -0.0010436323048849214
 207 	 -0.020125899572137403
 208 	 -0.0005738605578193846
 209 	 0.0025142576073978727
 210 	 0.00026952337838597633
 211 	 0.0003819316785586884
 212 	 0.0025803798813502587
 213 	 0.0006414032028568862
 214 	 0.0034768310160448197
 215 	 -0.00041222889505558916
 216 	 -0.0013296349762434822
 217 	 1.225078972620714e-07
 218 	 2.9582619473524176e-06
 219 	 1.152398098676893e-05
 220 	 0.00037740199025220036
 221 	 0.00668925612554324
 222 	 0.00028312547839782164
 Sym=     1a 
 Ene=-0.13
 Spin= Alpha 
 Occup= 1.000000 
 1 	 1.839177538925007e-07
 2 	 3.7669081029255968e-06
 3 	 -1.0066020830871717e-05
 4 	 0.0008858276822165679
 5 	 0.015707125366747433
 6 	 0.0006629888812330425
 7 	 -9.938849549186307e-08
 8 	 -2.2579379487344998e-07
 9 	 -9.499684352761028e-07
 10 	 2.7677249314059895e-05
 11 	 0.00017640370539029955
 12 	 0.013575023301839004
 13 	 0.2406387292390471
 14 	 0.010164395036884152
 15 	 0.01205432786044548
 16 	 0.21362815981820393
 17 	 0.009013864700480555
 18 	 0.021680854672418832
 19 	 0.3841790930663934
 20 	 0.016192208116733612
 21 	 4.4924716741162574e-05
 22 	 0.0004186298896544383
 23 	 0.0005911083911466913
 24 	 0.0010516967031714542
 25 	 0.009059909420825983
 26 	 0.0009177042058026677
 27 	 0.0017665889488687476
 28 	 0.012467112805404315
 29 	 0.0033747526347803285
 30 	 0.0250965732766627
 31 	 0.00023550624801827466
 32 	 0.00010517799180714528
 33 	 0.002268985323559714
 34 	 5.8983922980344064e-05
 35 	 -0.00035227247678837077
 36 	 0.00019281460893250712
 37 	 0.0010258007270387984
 38 	 -1.8646913995226822e-07
 39 	 -6.105353599258024e-07
 40 	 3.0241960312036406e-06
 41 	 -1.0528370609095452e-05
 42 	 -3.7847942334983915e-05
 43 	 -0.012892025535322559
 44 	 -0.22852685437191742
 45 	 -0.009653671637155064
 46 	 -0.011440565424472922
 47 	 -0.2028766392682992
 48 	 -0.008570088474355659
 49 	 -0.020643012643579692
 50 	 -0.3648405448797918
 51 	 -0.015390343086729045
 52 	 0.00011776197940546317
 53 	 0.0005161290397764802
 54 	 0.0015904265849662493
 55 	 0.0012028145983505533
 56 	 0.010019445103325485
 57 	 -0.0004536128146554831
 58 	 0.0008439409203886711
 59 	 -0.006341978208239219
 60 	 0.0029517443408089658
 61 	 0.028466689524736088
 62 	 -0.0002591801890670514
 63 	 -0.0001295307852747491
 64 	 -0.002491990834062388
 65 	 -8.277712188664341e-05
 66 	 0.00017538463360864472
 67 	 -0.00021947554917212039
 68 	 -0.0012358941590246751
 69 	 -2.6949698419753416e-07
 70 	 -1.0046874359193853e-05
 71 	 -1.9581543012576376e-05
 72 	 -0.000842226012207145
 73 	 -0.014916305068632786
 74 	 -0.0006298482045031191
 75 	 1.8350596320177225e-07
 76 	 2.8396101667986675e-07
 77 	 4.89421894761898e-07
 78 	 -1.0053754278185823e-05
 79 	 0.00011589727430398327
 80 	 -0.000682433382629361
 81 	 -0.012109808137929293
 82 	 -0.0005137345086600647
 83 	 -0.0006095728781521726
 84 	 -0.010753506247912367
 85 	 -0.00046106332691159225
 86 	 -0.0009916702772526393
 87 	 -0.019328803221162788
 88 	 -0.0008608287223173432
 89 	 -0.001251549768730056
 90 	 -0.000901599838596849
 91 	 -0.017071267656271136
 92 	 -0.0005546209204223296
 93 	 0.0015242745065658894
 94 	 -0.002711357761906995
 95 	 -0.0019405573406545782
 96 	 -0.03712342645054263
 97 	 -0.001135172371862103
 98 	 0.003939544145027343
 99 	 -4.9826031333979336e-05
 100 	 -0.00033214394043481495
 101 	 -0.0004676940561719208
 102 	 -0.0005300430324182118
 103 	 -0.004545035822064972
 104 	 0.00017570476707424968
 105 	 -0.00037724047277681757
 106 	 -3.03269359994818e-07
 107 	 6.261612190243052e-06
 108 	 3.9585167029277746e-05
 109 	 -4.458395630345635e-05
 110 	 -0.0007907658028171059
 111 	 -3.365155447626611e-05
 112 	 3.3462666944465986e-07
 113 	 7.345852415804421e-07
 114 	 1.5683130018239707e-08
 115 	 -2.8631694681420085e-05
 116 	 -0.00017209268288738224
 117 	 0.013575873882833146
 118 	 0.2406407911808284
 119 	 0.010165820621390403
 120 	 0.012054563580052195
 121 	 0.21362983766881757
 122 	 0.009015736108292469
 123 	 0.02168401994473451
 124 	 0.38417999727066227
 125 	 0.016201060342450915
 126 	 -4.487196890387812e-05
 127 	 -0.00041858754927480565
 128 	 -0.0005911272200935127
 129 	 -0.0010516745245057351
 130 	 -0.009059926936765796
 131 	 -0.0009175823313093717
 132 	 -0.0017669436117430598
 133 	 -0.012467003510907937
 134 	 -0.0033746770371611487
 135 	 -0.025096912030728304
 136 	 0.0002355363124945453
 137 	 0.00010517616685210587
 138 	 0.0022690047702645733
 139 	 5.903932574002381e-05
 140 	 -0.0003522335925011575
 141 	 0.00019279189187503665
 142 	 0.0010258344024872408
 143 	 5.344403717117222e-07
 144 	 -2.184235084425785e-06
 145 	 1.6570342047454785e-05
 146 	 0.0008858470083196441
 147 	 0.015707358145004107
 148 	 0.0006631121626951063
 149 	 2.2110011083434833e-07
 150 	 6.871806460027489e-07
 151 	 -3.1878951671297277e-06
 152 	 1.054428797493199e-05
 153 	 3.176769914940359e-05
 154 	 -0.012892706340636148
 155 	 -0.22852978385347777
 156 	 -0.009653918705659162
 157 	 -0.011441067663437983
 158 	 -0.202879044319051
 159 	 -0.008570273548620382
 160 	 -0.020642474096131524
 161 	 -0.36484266145123617
 162 	 -0.015393051785163838
 163 	 -0.00011773358237839442
 164 	 -0.0005162297020976839
 165 	 -0.0015903215242099593
 166 	 -0.0012027744632632342
 167 	 -0.010019345313431943
 168 	 0.00045360206770032766
 169 	 -0.0008443108035536336
 170 	 0.0063421154258586025
 171 	 -0.002951702446226804
 172 	 -0.02846651172113037
 173 	 -0.00025919693812681424
 174 	 -0.0001295333001879678
 175 	 -0.002492031257418337
 176 	 -8.276350298640783e-05
 177 	 0.00017544034946480845
 178 	 -0.00021947780500001187
 179 	 -0.0012359347326894188
 180 	 6.332872035187709e-07
 181 	 1.038865418078136e-05
 182 	 2.0827299959856628e-05
 183 	 -0.0008422220604033411
 184 	 -0.014916497410637773
 185 	 -0.00062990657616517
 186 	 -1.5363241442455372e-07
 187 	 -2.2012411995855204e-07
 188 	 -5.070814888543553e-07
 189 	 9.349028145211752e-06
 190 	 -0.00012127592488034818
 191 	 -0.0006825989636476395
 192 	 -0.012108654483270281
 193 	 -0.00051307263900473
 194 	 -0.0006094770331953386
 195 	 -0.010752732780229146
 196 	 -0.00046158597398663704
 197 	 -0.0009882226928146984
 198 	 -0.019329394975737796
 199 	 -0.0008621945017416336
 200 	 0.0012514582185291512
 201 	 0.000901558796931841
 202 	 0.017071161896480988
 203 	 0.000554682380231533
 204 	 -0.0015243874623352065
 205 	 0.002710978530261719
 206 	 0.0019408419719898467
 207 	 0.03712327648463352
 208 	 0.0011352753178318477
 209 	 -0.003939648136182548
 210 	 -4.984553338894748e-05
 211 	 -0.0003321231327783615
 212 	 -0.0004677752690047879
 213 	 -0.0005300296038434363
 214 	 -0.004545069438412153
 215 	 0.00017570683889471205
 216 	 -0.00037727549165967017
 217 	 6.640740975911719e-07
 218 	 -5.915512504466712e-06
 219 	 -3.915579725102933e-05
 220 	 -4.454220807992813e-05
 221 	 -0.000790772282690165
 222 	 -3.373087770027806e-05
 Sym=     1a 
 Ene=-0.12
 Spin= Alpha 
 Occup= 1.000000 
 1 	 -1.4160187500219596e-07
 2 	 -9.852411371048787e-06
 3 	 1.2373053679492448e-05
 4 	 -0.00045877875509898016
 5 	 -0.008156246927138691
 6 	 -0.0003427970952847064
 7 	 1.914945630726669e-08
 8 	 2.7100488128010967e-07
 9 	 -8.47250575684927e-06
 10 	 5.022554779383659e-05
 11 	 -0.0001991527103193044
 12 	 -0.007047367469765288
 13 	 -0.12494939413623858
 14 	 -0.005278918912125138
 15 	 -0.006269979162551254
 16 	 -0.11092574732801327
 17 	 -0.004681719205591597
 18 	 -0.011248893734175317
 19 	 -0.19947887283758048
 20 	 -0.008376033985986037
 21 	 -0.000642192101640091
 22 	 4.132438648093517e-05
 23 	 -0.00879256937063921
 24 	 0.0010620287771132065
 25 	 0.012674159235258699
 26 	 -0.0018255323203340812
 27 	 -0.00035606720255634274
 28 	 -0.024944359772636017
 29 	 0.0017514575564971633
 30 	 0.024799899475273487
 31 	 0.0002125157932577213
 32 	 -8.623117390328788e-05
 33 	 0.0020546600425011712
 34 	 -0.0003068256804172059
 35 	 -0.003021564443094682
 36 	 0.0004873490809619686
 37 	 0.001920088183437495
 38 	 -2.465559789144473e-07
 39 	 -4.6248496753653646e-07
 40 	 6.603135361600217e-07
 41 	 -4.142547128486549e-06
 42 	 6.528583673886034e-05
 43 	 -0.008229904639513423
 44 	 -0.14592402491320414
 45 	 -0.00616313586545803
 46 	 -0.007329148110194234
 47 	 -0.12954099256919413
 48 	 -0.005481892345689123
 49 	 -0.01309074462563994
 50 	 -0.23297313269540892
 51 	 -0.009889092548040627
 52 	 -0.0007603451663228169
 53 	 -0.0010261108178894974
 54 	 -0.010343037007771259
 55 	 -0.0016142761411528136
 56 	 -0.010360554383276101
 57 	 -0.0021041987641783376
 58 	 -0.002402702218537607
 59 	 -0.02878061953995393
 60 	 -0.0033052763465324713
 61 	 -0.01830700927908943
 62 	 0.00025065587968676117
 63 	 0.00027900331037193323
 64 	 0.0024048865734939747
 65 	 0.00028185720550487684
 66 	 0.0021254877401520504
 67 	 0.0002827115866020257
 68 	 0.002312220454022493
 69 	 -1.1270778375988207e-06
 70 	 4.09638843292797e-06